
FAST Summary File

Predictions were generated on 09-Oct-2022 at 17:18:16 using FAST (v8.16.00a-bjj, 27-Jul-2016), compiled as a 32-bit application using single precision
  compiled with
    NWTC Subroutine Library (v2.09.00, 23-Jul-2016)
    ElastoDyn (v1.04.00a-bjj, 26-Jul-2016)
    BeamDyn (unknown version, unknown date) [not called]
    InflowWind (v3.03.00, 26-Jul-2016)
    AeroDyn14 (v14.05.01a-bjj, 25-Jul-2016)
    AeroDyn (unknown version, unknown date) [not called]
    ServoDyn (v1.06.00a-bjj, 26-Jul-2016)
    HydroDyn (unknown version, unknown date) [not called]
    SubDyn (unknown version, unknown date) [not called]
    MAP (unknown version, unknown date) [not called]
    FEAMooring (unknown version, unknown date) [not called]
    MoorDyn (unknown version, unknown date) [not called]
    OrcaFlexInterface (unknown version, unknown date) [not called]
    IceFloe (unknown version, unknown date) [not called]
    IceDyn (unknown version, unknown date) [not called]


Modeling a land-based turbine
Description from the FAST input file: 
  NREL 5.0 MW Baseline Wind Turbine (Onshore)

Interpolation order for input/output time histories: 1 (linear)
Number of correction iterations:  0


   Requested Time Steps  
  -------------------------------------------------
  Component          Time Step (s)    Subcycles (-)
  -----------------  ---------------  -------------
  FAST (glue code)    1.250E-02
  InflowWind          1.250E-02              1
  ElastoDyn           1.250E-02              1
  AeroDyn14           1.250E-02              1
  ServoDyn            1.250E-02              1
  FAST output files   1.250E-02              1


   Requested Channels in FAST Output File(s)  
  --------------------------------------------
  Number  Name        Units       Generated by
  ------  ----------  ----------  ------------
       1  Time        (s)         FAST
       2  Wind1VelX   (m/s)       InflowWind
       3  BldPitch1   (deg)       ElastoDyn
       4  RotSpeed    (rpm)       ElastoDyn
       5  TTDspFA     (m)         ElastoDyn
       6  TwrBsMyt    (kN·m)      ElastoDyn
       7  LSShftTq    (kN·m)      ElastoDyn
       8  RootMyc1    (kN·m)      ElastoDyn
       9  GenPwr      (kW)        ServoDyn
      10  GenTq       (kN·m)      ServoDyn
