
Predictions were generated on 09-Oct-2022 at 16:13:36 using FAST (v8.16.00a-bjj, 27-Jul-2016), compiled as a 32-bit application using single precision
 linked with  NWTC Subroutine Library (v2.09.00, 23-Jul-2016); ElastoDyn (v1.04.00a-bjj, 26-Jul-2016); InflowWind (v3.03.00, 26-Jul-2016); AeroDyn14 (v14.05.01a-bjj, 25-Jul-2016); ServoDyn (v1.06.00a-bjj, 26-Jul-2016)

Description from the FAST input file: NREL 5.0 MW Baseline Wind Turbine (Onshore)

Time      	Wind1VelX 	BldPitch1 	RotSpeed  	TTDspFA   	TwrBsMyt  	LSShftTq  	RootMyc1  	GenPwr    	GenTq     
(s)       	(m/s)     	(deg)     	(rpm)     	(m)       	(kN·m)    	(kN·m)    	(kN·m)    	(kW)      	(kN·m)    
    0.0000	 8.000E+00	 0.000E+00	 9.155E+00	 1.970E-01	 3.271E+04	-1.495E-03	 5.943E+03	 1.764E+03	 2.009E+01
    0.0125	 8.000E+00	 0.000E+00	 9.203E+00	 1.970E-01	 3.272E+04	 1.143E+02	 6.107E+03	 1.738E+03	 1.989E+01
    0.0250	 8.000E+00	 0.000E+00	 9.251E+00	 1.971E-01	 3.271E+04	 3.292E+02	 6.292E+03	 1.715E+03	 1.972E+01
    0.0375	 8.000E+00	 0.000E+00	 9.277E+00	 1.972E-01	 3.265E+04	 6.116E+02	 5.892E+03	 1.695E+03	 1.957E+01
    0.0500	 8.000E+00	 0.000E+00	 9.290E+00	 1.973E-01	 3.260E+04	 9.384E+02	 5.878E+03	 1.680E+03	 1.945E+01
    0.0625	 8.000E+00	 0.000E+00	 9.292E+00	 1.974E-01	 3.258E+04	 1.285E+03	 6.027E+03	 1.670E+03	 1.937E+01
    0.0750	 8.000E+00	 0.000E+00	 9.279E+00	 1.976E-01	 3.255E+04	 1.625E+03	 5.995E+03	 1.665E+03	 1.933E+01
    0.0875	 8.000E+00	 0.000E+00	 9.254E+00	 1.977E-01	 3.253E+04	 1.939E+03	 5.993E+03	 1.663E+03	 1.932E+01
    0.1000	 8.000E+00	 0.000E+00	 9.217E+00	 1.979E-01	 3.250E+04	 2.202E+03	 5.926E+03	 1.666E+03	 1.934E+01
    0.1125	 8.000E+00	 0.000E+00	 9.174E+00	 1.981E-01	 3.251E+04	 2.404E+03	 5.933E+03	 1.672E+03	 1.939E+01
    0.1250	 8.000E+00	 0.000E+00	 9.127E+00	 1.984E-01	 3.253E+04	 2.536E+03	 5.883E+03	 1.680E+03	 1.945E+01
    0.1375	 8.000E+00	 0.000E+00	 9.083E+00	 1.986E-01	 3.258E+04	 2.598E+03	 5.899E+03	 1.689E+03	 1.952E+01
    0.1500	 8.000E+00	 0.000E+00	 9.044E+00	 1.989E-01	 3.265E+04	 2.597E+03	 5.845E+03	 1.698E+03	 1.959E+01
    0.1625	 8.000E+00	 0.000E+00	 9.015E+00	 1.992E-01	 3.275E+04	 2.545E+03	 5.864E+03	 1.707E+03	 1.966E+01
    0.1750	 8.000E+00	 0.000E+00	 8.997E+00	 1.994E-01	 3.287E+04	 2.459E+03	 5.816E+03	 1.715E+03	 1.972E+01
    0.1875	 8.000E+00	 0.000E+00	 8.994E+00	 1.997E-01	 3.302E+04	 2.356E+03	 5.843E+03	 1.722E+03	 1.977E+01
    0.2000	 8.000E+00	 0.000E+00	 9.004E+00	 2.000E-01	 3.318E+04	 2.256E+03	 5.794E+03	 1.727E+03	 1.981E+01
    0.2125	 8.000E+00	 0.000E+00	 9.028E+00	 2.004E-01	 3.338E+04	 2.177E+03	 5.834E+03	 1.731E+03	 1.984E+01
    0.2250	 8.000E+00	 0.000E+00	 9.062E+00	 2.007E-01	 3.357E+04	 2.131E+03	 5.777E+03	 1.734E+03	 1.987E+01
    0.2375	 8.000E+00	 0.000E+00	 9.104E+00	 2.010E-01	 3.379E+04	 2.128E+03	 5.822E+03	 1.737E+03	 1.989E+01
    0.2500	 8.000E+00	 0.000E+00	 9.150E+00	 2.013E-01	 3.399E+04	 2.172E+03	 5.779E+03	 1.740E+03	 1.991E+01
    0.2625	 8.000E+00	 0.000E+00	 9.197E+00	 2.017E-01	 3.420E+04	 2.263E+03	 5.826E+03	 1.744E+03	 1.994E+01
    0.2750	 8.000E+00	 0.000E+00	 9.240E+00	 2.020E-01	 3.440E+04	 2.391E+03	 5.790E+03	 1.749E+03	 1.998E+01
    0.2875	 8.000E+00	 0.000E+00	 9.277E+00	 2.023E-01	 3.458E+04	 2.548E+03	 5.846E+03	 1.756E+03	 2.003E+01
    0.3000	 8.000E+00	 0.000E+00	 9.304E+00	 2.027E-01	 3.474E+04	 2.716E+03	 5.810E+03	 1.766E+03	 2.011E+01
    0.3125	 8.000E+00	 0.000E+00	 9.322E+00	 2.030E-01	 3.488E+04	 2.881E+03	 5.875E+03	 1.777E+03	 2.019E+01
    0.3250	 8.000E+00	 0.000E+00	 9.327E+00	 2.034E-01	 3.499E+04	 3.023E+03	 5.834E+03	 1.791E+03	 2.030E+01
    0.3375	 8.000E+00	 0.000E+00	 9.323E+00	 2.037E-01	 3.509E+04	 3.129E+03	 5.910E+03	 1.806E+03	 2.041E+01
    0.3500	 8.000E+00	 0.000E+00	 9.308E+00	 2.041E-01	 3.512E+04	 3.185E+03	 5.865E+03	 1.823E+03	 2.054E+01
    0.3625	 8.000E+00	 0.000E+00	 9.286E+00	 2.044E-01	 3.518E+04	 3.183E+03	 5.950E+03	 1.839E+03	 2.066E+01
    0.3750	 8.000E+00	 0.000E+00	 9.258E+00	 2.048E-01	 3.517E+04	 3.119E+03	 5.904E+03	 1.856E+03	 2.078E+01
    0.3875	 8.000E+00	 0.000E+00	 9.230E+00	 2.051E-01	 3.518E+04	 2.994E+03	 5.988E+03	 1.870E+03	 2.089E+01
    0.4000	 8.000E+00	 0.000E+00	 9.202E+00	 2.055E-01	 3.513E+04	 2.814E+03	 5.938E+03	 1.883E+03	 2.099E+01
    0.4125	 8.000E+00	 0.000E+00	 9.179E+00	 2.058E-01	 3.511E+04	 2.590E+03	 6.021E+03	 1.892E+03	 2.106E+01
    0.4250	 8.000E+00	 0.000E+00	 9.162E+00	 2.062E-01	 3.505E+04	 2.336E+03	 5.957E+03	 1.899E+03	 2.110E+01
    0.4375	 8.000E+00	 0.000E+00	 9.152E+00	 2.066E-01	 3.503E+04	 2.068E+03	 6.046E+03	 1.901E+03	 2.112E+01
    0.4500	 8.000E+00	 0.000E+00	 9.150E+00	 2.070E-01	 3.497E+04	 1.802E+03	 5.971E+03	 1.899E+03	 2.111E+01
    0.4625	 8.000E+00	 0.000E+00	 9.157E+00	 2.073E-01	 3.496E+04	 1.555E+03	 6.036E+03	 1.894E+03	 2.107E+01
    0.4750	 8.000E+00	 0.000E+00	 9.170E+00	 2.077E-01	 3.496E+04	 1.340E+03	 5.991E+03	 1.885E+03	 2.100E+01
    0.4875	 8.000E+00	 0.000E+00	 9.190E+00	 2.081E-01	 3.497E+04	 1.170E+03	 6.030E+03	 1.874E+03	 2.092E+01
    0.5000	 8.000E+00	 0.000E+00	 9.211E+00	 2.085E-01	 3.500E+04	 1.049E+03	 5.968E+03	 1.861E+03	 2.082E+01
    0.5125	 8.000E+00	 0.000E+00	 9.234E+00	 2.089E-01	 3.506E+04	 9.818E+02	 6.007E+03	 1.847E+03	 2.072E+01
    0.5250	 8.000E+00	 0.000E+00	 9.254E+00	 2.093E-01	 3.514E+04	 9.655E+02	 5.935E+03	 1.832E+03	 2.061E+01
    0.5375	 8.000E+00	 0.000E+00	 9.271E+00	 2.097E-01	 3.524E+04	 9.965E+02	 5.973E+03	 1.818E+03	 2.050E+01
    0.5500	 8.000E+00	 0.000E+00	 9.282E+00	 2.101E-01	 3.537E+04	 1.064E+03	 5.885E+03	 1.805E+03	 2.040E+01
    0.5625	 8.000E+00	 0.000E+00	 9.286E+00	 2.105E-01	 3.552E+04	 1.160E+03	 5.934E+03	 1.793E+03	 2.031E+01
    0.5750	 8.000E+00	 0.000E+00	 9.282E+00	 2.108E-01	 3.568E+04	 1.270E+03	 5.828E+03	 1.782E+03	 2.023E+01
    0.5875	 8.000E+00	 0.000E+00	 9.271E+00	 2.112E-01	 3.584E+04	 1.385E+03	 5.876E+03	 1.773E+03	 2.016E+01
    0.6000	 8.000E+00	 0.000E+00	 9.253E+00	 2.116E-01	 3.602E+04	 1.491E+03	 5.770E+03	 1.766E+03	 2.011E+01
    0.6125	 8.000E+00	 0.000E+00	 9.231E+00	 2.120E-01	 3.618E+04	 1.583E+03	 5.818E+03	 1.761E+03	 2.007E+01
    0.6250	 8.000E+00	 0.000E+00	 9.204E+00	 2.124E-01	 3.634E+04	 1.652E+03	 5.705E+03	 1.756E+03	 2.003E+01
    0.6375	 8.000E+00	 0.000E+00	 9.178E+00	 2.127E-01	 3.648E+04	 1.699E+03	 5.756E+03	 1.753E+03	 2.001E+01
    0.6500	 8.000E+00	 0.000E+00	 9.151E+00	 2.131E-01	 3.662E+04	 1.721E+03	 5.640E+03	 1.749E+03	 1.998E+01
    0.6625	 8.000E+00	 0.000E+00	 9.129E+00	 2.134E-01	 3.673E+04	 1.724E+03	 5.702E+03	 1.747E+03	 1.996E+01
    0.6750	 8.000E+00	 0.000E+00	 9.111E+00	 2.137E-01	 3.682E+04	 1.711E+03	 5.577E+03	 1.744E+03	 1.994E+01
    0.6875	 8.000E+00	 0.000E+00	 9.099E+00	 2.141E-01	 3.686E+04	 1.693E+03	 5.630E+03	 1.740E+03	 1.991E+01
    0.7000	 8.000E+00	 0.000E+00	 9.094E+00	 2.144E-01	 3.693E+04	 1.676E+03	 5.553E+03	 1.737E+03	 1.989E+01
    0.7125	 8.000E+00	 0.000E+00	 9.097E+00	 2.147E-01	 3.688E+04	 1.670E+03	 5.551E+03	 1.733E+03	 1.986E+01
    0.7250	 8.000E+00	 0.000E+00	 9.105E+00	 2.150E-01	 3.693E+04	 1.681E+03	 5.533E+03	 1.730E+03	 1.983E+01
    0.7375	 8.000E+00	 0.000E+00	 9.120E+00	 2.152E-01	 3.682E+04	 1.715E+03	 5.507E+03	 1.727E+03	 1.981E+01
    0.7500	 8.000E+00	 0.000E+00	 9.138E+00	 2.155E-01	 3.682E+04	 1.775E+03	 5.480E+03	 1.725E+03	 1.979E+01
    0.7625	 8.000E+00	 0.000E+00	 9.159E+00	 2.157E-01	 3.670E+04	 1.862E+03	 5.483E+03	 1.723E+03	 1.978E+01
    0.7750	 8.000E+00	 0.000E+00	 9.180E+00	 2.159E-01	 3.666E+04	 1.973E+03	 5.443E+03	 1.723E+03	 1.978E+01
    0.7875	 8.000E+00	 0.000E+00	 9.201E+00	 2.162E-01	 3.654E+04	 2.104E+03	 5.473E+03	 1.725E+03	 1.979E+01
    0.8000	 8.000E+00	 0.000E+00	 9.218E+00	 2.163E-01	 3.649E+04	 2.247E+03	 5.430E+03	 1.728E+03	 1.982E+01
    0.8125	 8.000E+00	 0.000E+00	 9.232E+00	 2.165E-01	 3.638E+04	 2.394E+03	 5.470E+03	 1.734E+03	 1.986E+01
    0.8250	 8.000E+00	 0.000E+00	 9.240E+00	 2.167E-01	 3.635E+04	 2.536E+03	 5.434E+03	 1.741E+03	 1.992E+01
    0.8375	 8.000E+00	 0.000E+00	 9.244E+00	 2.168E-01	 3.626E+04	 2.664E+03	 5.487E+03	 1.750E+03	 1.999E+01
    0.8500	 8.000E+00	 0.000E+00	 9.243E+00	 2.169E-01	 3.626E+04	 2.769E+03	 5.448E+03	 1.761E+03	 2.007E+01
    0.8625	 8.000E+00	 0.000E+00	 9.238E+00	 2.170E-01	 3.620E+04	 2.845E+03	 5.520E+03	 1.773E+03	 2.016E+01
    0.8750	 8.000E+00	 0.000E+00	 9.230E+00	 2.171E-01	 3.623E+04	 2.886E+03	 5.472E+03	 1.785E+03	 2.025E+01
    0.8875	 8.000E+00	 0.000E+00	 9.221E+00	 2.172E-01	 3.620E+04	 2.892E+03	 5.559E+03	 1.798E+03	 2.035E+01
    0.9000	 8.000E+00	 0.000E+00	 9.210E+00	 2.172E-01	 3.627E+04	 2.860E+03	 5.512E+03	 1.811E+03	 2.044E+01
    0.9125	 8.000E+00	 0.000E+00	 9.201E+00	 2.173E-01	 3.626E+04	 2.796E+03	 5.596E+03	 1.822E+03	 2.053E+01
    0.9250	 8.000E+00	 0.000E+00	 9.193E+00	 2.173E-01	 3.635E+04	 2.702E+03	 5.547E+03	 1.833E+03	 2.061E+01
    0.9375	 8.000E+00	 0.000E+00	 9.190E+00	 2.173E-01	 3.636E+04	 2.588E+03	 5.641E+03	 1.842E+03	 2.068E+01
    0.9500	 8.000E+00	 0.000E+00	 9.188E+00	 2.174E-01	 3.645E+04	 2.458E+03	 5.575E+03	 1.849E+03	 2.074E+01
    0.9625	 8.000E+00	 0.000E+00	 9.192E+00	 2.174E-01	 3.647E+04	 2.324E+03	 5.673E+03	 1.855E+03	 2.078E+01
    0.9750	 8.000E+00	 0.000E+00	 9.198E+00	 2.173E-01	 3.655E+04	 2.189E+03	 5.605E+03	 1.858E+03	 2.080E+01
    0.9875	 8.000E+00	 0.000E+00	 9.208E+00	 2.173E-01	 3.654E+04	 2.065E+03	 5.681E+03	 1.860E+03	 2.081E+01
    1.0000	 8.000E+00	 0.000E+00	 9.219E+00	 2.173E-01	 3.662E+04	 1.952E+03	 5.645E+03	 1.859E+03	 2.081E+01
    1.0125	 8.000E+00	 0.000E+00	 9.231E+00	 2.173E-01	 3.657E+04	 1.859E+03	 5.692E+03	 1.858E+03	 2.080E+01
    1.0250	 8.000E+00	 0.000E+00	 9.243E+00	 2.172E-01	 3.662E+04	 1.784E+03	 5.635E+03	 1.855E+03	 2.078E+01
    1.0375	 8.000E+00	 0.000E+00	 9.254E+00	 2.172E-01	 3.655E+04	 1.729E+03	 5.697E+03	 1.851E+03	 2.075E+01
    1.0500	 8.000E+00	 0.000E+00	 9.262E+00	 2.172E-01	 3.655E+04	 1.691E+03	 5.624E+03	 1.847E+03	 2.072E+01
    1.0625	 8.000E+00	 0.000E+00	 9.267E+00	 2.171E-01	 3.648E+04	 1.668E+03	 5.692E+03	 1.842E+03	 2.068E+01
    1.0750	 8.000E+00	 0.000E+00	 9.267E+00	 2.170E-01	 3.645E+04	 1.654E+03	 5.606E+03	 1.837E+03	 2.065E+01
    1.0875	 8.000E+00	 0.000E+00	 9.265E+00	 2.169E-01	 3.634E+04	 1.646E+03	 5.678E+03	 1.832E+03	 2.061E+01
    1.1000	 8.000E+00	 0.000E+00	 9.257E+00	 2.168E-01	 3.630E+04	 1.639E+03	 5.582E+03	 1.827E+03	 2.057E+01
    1.1125	 8.000E+00	 0.000E+00	 9.247E+00	 2.167E-01	 3.618E+04	 1.631E+03	 5.659E+03	 1.822E+03	 2.053E+01
    1.1250	 8.000E+00	 0.000E+00	 9.234E+00	 2.166E-01	 3.615E+04	 1.616E+03	 5.573E+03	 1.817E+03	 2.049E+01
    1.1375	 8.000E+00	 0.000E+00	 9.219E+00	 2.165E-01	 3.602E+04	 1.595E+03	 5.615E+03	 1.812E+03	 2.045E+01
    1.1500	 8.000E+00	 0.000E+00	 9.204E+00	 2.163E-01	 3.601E+04	 1.567E+03	 5.555E+03	 1.806E+03	 2.041E+01
    1.1625	 8.000E+00	 0.000E+00	 9.189E+00	 2.162E-01	 3.590E+04	 1.534E+03	 5.601E+03	 1.800E+03	 2.037E+01
    1.1750	 8.000E+00	 0.000E+00	 9.175E+00	 2.160E-01	 3.591E+04	 1.497E+03	 5.538E+03	 1.794E+03	 2.032E+01
    1.1875	 8.000E+00	 0.000E+00	 9.164E+00	 2.158E-01	 3.583E+04	 1.462E+03	 5.594E+03	 1.787E+03	 2.027E+01
    1.2000	 8.000E+00	 0.000E+00	 9.156E+00	 2.156E-01	 3.587E+04	 1.430E+03	 5.538E+03	 1.780E+03	 2.021E+01
    1.2125	 8.000E+00	 0.000E+00	 9.151E+00	 2.153E-01	 3.580E+04	 1.409E+03	 5.561E+03	 1.773E+03	 2.016E+01
    1.2250	 8.000E+00	 0.000E+00	 9.149E+00	 2.151E-01	 3.587E+04	 1.400E+03	 5.538E+03	 1.765E+03	 2.010E+01
    1.2375	 8.000E+00	 0.000E+00	 9.151E+00	 2.148E-01	 3.583E+04	 1.409E+03	 5.575E+03	 1.758E+03	 2.004E+01
    1.2500	 8.000E+00	 0.000E+00	 9.155E+00	 2.145E-01	 3.590E+04	 1.435E+03	 5.541E+03	 1.751E+03	 1.999E+01
    1.2625	 8.000E+00	 0.000E+00	 9.161E+00	 2.142E-01	 3.588E+04	 1.483E+03	 5.585E+03	 1.744E+03	 1.994E+01
    1.2750	 8.000E+00	 0.000E+00	 9.168E+00	 2.139E-01	 3.595E+04	 1.549E+03	 5.550E+03	 1.738E+03	 1.990E+01
    1.2875	 8.000E+00	 0.000E+00	 9.176E+00	 2.136E-01	 3.592E+04	 1.633E+03	 5.604E+03	 1.734E+03	 1.986E+01
    1.3000	 8.000E+00	 0.000E+00	 9.182E+00	 2.132E-01	 3.598E+04	 1.731E+03	 5.563E+03	 1.730E+03	 1.984E+01
    1.3125	 8.000E+00	 0.000E+00	 9.189E+00	 2.129E-01	 3.594E+04	 1.840E+03	 5.627E+03	 1.729E+03	 1.982E+01
    1.3250	 8.000E+00	 0.000E+00	 9.193E+00	 2.125E-01	 3.597E+04	 1.954E+03	 5.592E+03	 1.728E+03	 1.982E+01
    1.3375	 8.000E+00	 0.000E+00	 9.195E+00	 2.121E-01	 3.590E+04	 2.068E+03	 5.653E+03	 1.729E+03	 1.983E+01
    1.3500	 8.000E+00	 0.000E+00	 9.195E+00	 2.117E-01	 3.589E+04	 2.177E+03	 5.619E+03	 1.732E+03	 1.985E+01
    1.3625	 8.000E+00	 0.000E+00	 9.195E+00	 2.113E-01	 3.578E+04	 2.276E+03	 5.688E+03	 1.736E+03	 1.988E+01
    1.3750	 8.000E+00	 0.000E+00	 9.191E+00	 2.109E-01	 3.574E+04	 2.361E+03	 5.652E+03	 1.741E+03	 1.992E+01
    1.3875	 8.000E+00	 0.000E+00	 9.188E+00	 2.105E-01	 3.560E+04	 2.430E+03	 5.722E+03	 1.748E+03	 1.997E+01
    1.4000	 8.000E+00	 0.000E+00	 9.184E+00	 2.101E-01	 3.552E+04	 2.479E+03	 5.681E+03	 1.755E+03	 2.002E+01
    1.4125	 8.000E+00	 0.000E+00	 9.181E+00	 2.097E-01	 3.535E+04	 2.510E+03	 5.760E+03	 1.762E+03	 2.008E+01
    1.4250	 8.000E+00	 0.000E+00	 9.178E+00	 2.092E-01	 3.525E+04	 2.521E+03	 5.710E+03	 1.770E+03	 2.014E+01
    1.4375	 8.000E+00	 0.000E+00	 9.177E+00	 2.088E-01	 3.507E+04	 2.518E+03	 5.795E+03	 1.778E+03	 2.020E+01
    1.4500	 8.000E+00	 0.000E+00	 9.177E+00	 2.084E-01	 3.496E+04	 2.499E+03	 5.736E+03	 1.785E+03	 2.026E+01
    1.4625	 8.000E+00	 0.000E+00	 9.180E+00	 2.079E-01	 3.478E+04	 2.471E+03	 5.827E+03	 1.793E+03	 2.031E+01
    1.4750	 8.000E+00	 0.000E+00	 9.185E+00	 2.075E-01	 3.468E+04	 2.434E+03	 5.758E+03	 1.799E+03	 2.036E+01
    1.4875	 8.000E+00	 0.000E+00	 9.192E+00	 2.070E-01	 3.451E+04	 2.394E+03	 5.850E+03	 1.805E+03	 2.041E+01
    1.5000	 8.000E+00	 0.000E+00	 9.199E+00	 2.066E-01	 3.444E+04	 2.352E+03	 5.789E+03	 1.811E+03	 2.045E+01
    1.5125	 8.000E+00	 0.000E+00	 9.209E+00	 2.061E-01	 3.430E+04	 2.312E+03	 5.847E+03	 1.816E+03	 2.048E+01
    1.5250	 8.000E+00	 0.000E+00	 9.218E+00	 2.057E-01	 3.427E+04	 2.274E+03	 5.804E+03	 1.820E+03	 2.052E+01
    1.5375	 8.000E+00	 0.000E+00	 9.227E+00	 2.052E-01	 3.416E+04	 2.239E+03	 5.871E+03	 1.824E+03	 2.054E+01
    1.5500	 8.000E+00	 0.000E+00	 9.235E+00	 2.047E-01	 3.416E+04	 2.207E+03	 5.802E+03	 1.827E+03	 2.057E+01
    1.5625	 8.000E+00	 0.000E+00	 9.242E+00	 2.043E-01	 3.410E+04	 2.178E+03	 5.881E+03	 1.830E+03	 2.059E+01
    1.5750	 8.000E+00	 0.000E+00	 9.246E+00	 2.038E-01	 3.413E+04	 2.149E+03	 5.816E+03	 1.832E+03	 2.061E+01
    1.5875	 8.000E+00	 0.000E+00	 9.249E+00	 2.033E-01	 3.410E+04	 2.121E+03	 5.877E+03	 1.834E+03	 2.062E+01
    1.6000	 8.000E+00	 0.000E+00	 9.250E+00	 2.029E-01	 3.415E+04	 2.089E+03	 5.830E+03	 1.836E+03	 2.063E+01
    1.6125	 8.000E+00	 0.000E+00	 9.248E+00	 2.024E-01	 3.414E+04	 2.053E+03	 5.854E+03	 1.837E+03	 2.064E+01
    1.6250	 8.000E+00	 0.000E+00	 9.244E+00	 2.019E-01	 3.419E+04	 2.012E+03	 5.834E+03	 1.837E+03	 2.064E+01
    1.6375	 8.000E+00	 0.000E+00	 9.238E+00	 2.015E-01	 3.418E+04	 1.965E+03	 5.868E+03	 1.837E+03	 2.064E+01
    1.6500	 8.000E+00	 0.000E+00	 9.232E+00	 2.010E-01	 3.423E+04	 1.911E+03	 5.830E+03	 1.836E+03	 2.063E+01
    1.6625	 8.000E+00	 0.000E+00	 9.225E+00	 2.005E-01	 3.421E+04	 1.853E+03	 5.867E+03	 1.834E+03	 2.062E+01
    1.6750	 8.000E+00	 0.000E+00	 9.217E+00	 2.001E-01	 3.424E+04	 1.792E+03	 5.824E+03	 1.832E+03	 2.060E+01
    1.6875	 8.000E+00	 0.000E+00	 9.210E+00	 1.996E-01	 3.418E+04	 1.729E+03	 5.874E+03	 1.828E+03	 2.058E+01
    1.7000	 8.000E+00	 0.000E+00	 9.204E+00	 1.991E-01	 3.419E+04	 1.666E+03	 5.824E+03	 1.824E+03	 2.055E+01
    1.7125	 8.000E+00	 0.000E+00	 9.199E+00	 1.986E-01	 3.409E+04	 1.609E+03	 5.872E+03	 1.819E+03	 2.051E+01
    1.7250	 8.000E+00	 0.000E+00	 9.195E+00	 1.982E-01	 3.406E+04	 1.557E+03	 5.829E+03	 1.813E+03	 2.047E+01
    1.7375	 8.000E+00	 0.000E+00	 9.192E+00	 1.977E-01	 3.392E+04	 1.515E+03	 5.876E+03	 1.807E+03	 2.042E+01
    1.7500	 8.000E+00	 0.000E+00	 9.191E+00	 1.972E-01	 3.386E+04	 1.485E+03	 5.835E+03	 1.800E+03	 2.037E+01
    1.7625	 8.000E+00	 0.000E+00	 9.190E+00	 1.967E-01	 3.368E+04	 1.468E+03	 5.885E+03	 1.793E+03	 2.032E+01
    1.7750	 8.000E+00	 0.000E+00	 9.190E+00	 1.963E-01	 3.359E+04	 1.464E+03	 5.840E+03	 1.786E+03	 2.026E+01
    1.7875	 8.000E+00	 0.000E+00	 9.191E+00	 1.958E-01	 3.340E+04	 1.476E+03	 5.897E+03	 1.780E+03	 2.021E+01
    1.8000	 8.000E+00	 0.000E+00	 9.192E+00	 1.953E-01	 3.330E+04	 1.501E+03	 5.848E+03	 1.773E+03	 2.016E+01
    1.8125	 8.000E+00	 0.000E+00	 9.193E+00	 1.948E-01	 3.309E+04	 1.538E+03	 5.908E+03	 1.767E+03	 2.012E+01
    1.8250	 8.000E+00	 0.000E+00	 9.193E+00	 1.944E-01	 3.299E+04	 1.586E+03	 5.863E+03	 1.762E+03	 2.008E+01
    1.8375	 8.000E+00	 0.000E+00	 9.192E+00	 1.939E-01	 3.279E+04	 1.642E+03	 5.921E+03	 1.757E+03	 2.004E+01
    1.8500	 8.000E+00	 0.000E+00	 9.191E+00	 1.934E-01	 3.270E+04	 1.703E+03	 5.879E+03	 1.754E+03	 2.001E+01
    1.8625	 8.000E+00	 0.000E+00	 9.189E+00	 1.929E-01	 3.253E+04	 1.767E+03	 5.919E+03	 1.751E+03	 1.999E+01
    1.8750	 8.000E+00	 0.000E+00	 9.186E+00	 1.925E-01	 3.244E+04	 1.832E+03	 5.929E+03	 1.749E+03	 1.998E+01
    1.8875	 8.000E+00	 0.000E+00	 9.183E+00	 1.920E-01	 3.230E+04	 1.894E+03	 5.921E+03	 1.748E+03	 1.997E+01
    1.9000	 8.000E+00	 0.000E+00	 9.179E+00	 1.915E-01	 3.224E+04	 1.953E+03	 5.931E+03	 1.748E+03	 1.997E+01
    1.9125	 8.000E+00	 0.000E+00	 9.176E+00	 1.911E-01	 3.212E+04	 2.007E+03	 5.945E+03	 1.748E+03	 1.997E+01
    1.9250	 8.000E+00	 0.000E+00	 9.173E+00	 1.906E-01	 3.208E+04	 2.055E+03	 5.941E+03	 1.750E+03	 1.998E+01
    1.9375	 8.000E+00	 0.000E+00	 9.171E+00	 1.901E-01	 3.199E+04	 2.097E+03	 5.953E+03	 1.752E+03	 2.000E+01
    1.9500	 8.000E+00	 0.000E+00	 9.170E+00	 1.897E-01	 3.197E+04	 2.132E+03	 5.951E+03	 1.754E+03	 2.002E+01
    1.9625	 8.000E+00	 0.000E+00	 9.170E+00	 1.893E-01	 3.187E+04	 2.163E+03	 5.957E+03	 1.757E+03	 2.004E+01
    1.9750	 8.000E+00	 0.000E+00	 9.171E+00	 1.888E-01	 3.187E+04	 2.188E+03	 5.950E+03	 1.760E+03	 2.006E+01
    1.9875	 8.000E+00	 0.000E+00	 9.174E+00	 1.884E-01	 3.178E+04	 2.210E+03	 5.955E+03	 1.763E+03	 2.009E+01
    2.0000	 8.000E+00	 0.000E+00	 9.178E+00	 1.880E-01	 3.176E+04	 2.229E+03	 5.949E+03	 1.767E+03	 2.012E+01
    2.0125	 8.000E+00	 0.000E+00	 9.182E+00	 1.876E-01	 3.167E+04	 2.245E+03	 5.947E+03	 1.771E+03	 2.015E+01
    2.0250	 8.000E+00	 0.000E+00	 9.187E+00	 1.872E-01	 3.164E+04	 2.260E+03	 5.939E+03	 1.775E+03	 2.018E+01
    2.0375	 8.000E+00	 0.000E+00	 9.193E+00	 1.868E-01	 3.153E+04	 2.272E+03	 5.933E+03	 1.779E+03	 2.021E+01
    2.0500	 8.000E+00	 0.000E+00	 9.199E+00	 1.865E-01	 3.148E+04	 2.283E+03	 5.924E+03	 1.784E+03	 2.024E+01
    2.0625	 8.000E+00	 0.000E+00	 9.204E+00	 1.861E-01	 3.135E+04	 2.291E+03	 5.938E+03	 1.788E+03	 2.028E+01
    2.0750	 8.000E+00	 0.000E+00	 9.209E+00	 1.857E-01	 3.130E+04	 2.296E+03	 5.871E+03	 1.793E+03	 2.031E+01
    2.0875	 8.000E+00	 0.000E+00	 9.213E+00	 1.854E-01	 3.113E+04	 2.297E+03	 5.926E+03	 1.797E+03	 2.034E+01
    2.1000	 8.000E+00	 0.000E+00	 9.216E+00	 1.851E-01	 3.108E+04	 2.292E+03	 5.858E+03	 1.801E+03	 2.038E+01
    2.1125	 8.000E+00	 0.000E+00	 9.219E+00	 1.848E-01	 3.090E+04	 2.282E+03	 5.905E+03	 1.806E+03	 2.041E+01
    2.1250	 8.000E+00	 0.000E+00	 9.220E+00	 1.845E-01	 3.084E+04	 2.265E+03	 5.825E+03	 1.810E+03	 2.044E+01
    2.1375	 8.000E+00	 0.000E+00	 9.220E+00	 1.842E-01	 3.065E+04	 2.241E+03	 5.895E+03	 1.814E+03	 2.047E+01
    2.1500	 8.000E+00	 0.000E+00	 9.219E+00	 1.839E-01	 3.061E+04	 2.210E+03	 5.803E+03	 1.817E+03	 2.049E+01
    2.1625	 8.000E+00	 0.000E+00	 9.219E+00	 1.837E-01	 3.043E+04	 2.173E+03	 5.873E+03	 1.820E+03	 2.052E+01
    2.1750	 8.000E+00	 0.000E+00	 9.217E+00	 1.834E-01	 3.041E+04	 2.129E+03	 5.786E+03	 1.822E+03	 2.053E+01
    2.1875	 8.000E+00	 0.000E+00	 9.216E+00	 1.832E-01	 3.025E+04	 2.081E+03	 5.855E+03	 1.824E+03	 2.054E+01
    2.2000	 8.000E+00	 0.000E+00	 9.214E+00	 1.829E-01	 3.025E+04	 2.029E+03	 5.772E+03	 1.825E+03	 2.055E+01
    2.2125	 8.000E+00	 0.000E+00	 9.213E+00	 1.827E-01	 3.012E+04	 1.976E+03	 5.842E+03	 1.825E+03	 2.055E+01
    2.2250	 8.000E+00	 0.000E+00	 9.211E+00	 1.825E-01	 3.015E+04	 1.922E+03	 5.769E+03	 1.824E+03	 2.055E+01
    2.2375	 8.000E+00	 0.000E+00	 9.211E+00	 1.823E-01	 3.006E+04	 1.871E+03	 5.815E+03	 1.823E+03	 2.054E+01
    2.2500	 8.000E+00	 0.000E+00	 9.210E+00	 1.822E-01	 3.011E+04	 1.823E+03	 5.761E+03	 1.821E+03	 2.052E+01
    2.2625	 8.000E+00	 0.000E+00	 9.210E+00	 1.820E-01	 3.005E+04	 1.780E+03	 5.815E+03	 1.818E+03	 2.050E+01
    2.2750	 8.000E+00	 0.000E+00	 9.210E+00	 1.818E-01	 3.013E+04	 1.743E+03	 5.756E+03	 1.815E+03	 2.048E+01
    2.2875	 8.000E+00	 0.000E+00	 9.210E+00	 1.817E-01	 3.009E+04	 1.713E+03	 5.814E+03	 1.811E+03	 2.045E+01
    2.3000	 8.000E+00	 0.000E+00	 9.210E+00	 1.816E-01	 3.020E+04	 1.691E+03	 5.752E+03	 1.807E+03	 2.042E+01
    2.3125	 8.000E+00	 0.000E+00	 9.210E+00	 1.815E-01	 3.017E+04	 1.677E+03	 5.815E+03	 1.803E+03	 2.039E+01
    2.3250	 8.000E+00	 0.000E+00	 9.209E+00	 1.814E-01	 3.028E+04	 1.670E+03	 5.754E+03	 1.799E+03	 2.036E+01
    2.3375	 8.000E+00	 0.000E+00	 9.208E+00	 1.813E-01	 3.025E+04	 1.670E+03	 5.825E+03	 1.795E+03	 2.033E+01
    2.3500	 8.000E+00	 0.000E+00	 9.206E+00	 1.812E-01	 3.037E+04	 1.676E+03	 5.752E+03	 1.791E+03	 2.030E+01
    2.3625	 8.000E+00	 0.000E+00	 9.204E+00	 1.812E-01	 3.034E+04	 1.688E+03	 5.817E+03	 1.787E+03	 2.027E+01
    2.3750	 8.000E+00	 0.000E+00	 9.201E+00	 1.812E-01	 3.043E+04	 1.703E+03	 5.783E+03	 1.783E+03	 2.024E+01
    2.3875	 8.000E+00	 0.000E+00	 9.198E+00	 1.812E-01	 3.040E+04	 1.721E+03	 5.829E+03	 1.780E+03	 2.021E+01
    2.4000	 8.000E+00	 0.000E+00	 9.195E+00	 1.812E-01	 3.049E+04	 1.742E+03	 5.775E+03	 1.776E+03	 2.019E+01
    2.4125	 8.000E+00	 0.000E+00	 9.191E+00	 1.812E-01	 3.044E+04	 1.765E+03	 5.844E+03	 1.774E+03	 2.017E+01
    2.4250	 8.000E+00	 0.000E+00	 9.188E+00	 1.812E-01	 3.053E+04	 1.788E+03	 5.784E+03	 1.771E+03	 2.015E+01
    2.4375	 8.000E+00	 0.000E+00	 9.185E+00	 1.813E-01	 3.045E+04	 1.812E+03	 5.856E+03	 1.769E+03	 2.013E+01
    2.4500	 8.000E+00	 0.000E+00	 9.183E+00	 1.813E-01	 3.054E+04	 1.837E+03	 5.791E+03	 1.767E+03	 2.012E+01
    2.4625	 8.000E+00	 0.000E+00	 9.181E+00	 1.814E-01	 3.046E+04	 1.863E+03	 5.872E+03	 1.766E+03	 2.011E+01
    2.4750	 8.000E+00	 0.000E+00	 9.180E+00	 1.815E-01	 3.056E+04	 1.889E+03	 5.795E+03	 1.765E+03	 2.010E+01
    2.4875	 8.000E+00	 0.000E+00	 9.180E+00	 1.816E-01	 3.047E+04	 1.916E+03	 5.884E+03	 1.764E+03	 2.009E+01
    2.5000	 8.000E+00	 0.000E+00	 9.180E+00	 1.817E-01	 3.058E+04	 1.944E+03	 5.805E+03	 1.764E+03	 2.009E+01
    2.5125	 8.000E+00	 0.000E+00	 9.181E+00	 1.818E-01	 3.050E+04	 1.973E+03	 5.894E+03	 1.764E+03	 2.009E+01
    2.5250	 8.000E+00	 0.000E+00	 9.183E+00	 1.819E-01	 3.064E+04	 2.003E+03	 5.811E+03	 1.765E+03	 2.010E+01
    2.5375	 8.000E+00	 0.000E+00	 9.185E+00	 1.821E-01	 3.057E+04	 2.034E+03	 5.902E+03	 1.766E+03	 2.011E+01
    2.5500	 8.000E+00	 0.000E+00	 9.188E+00	 1.822E-01	 3.073E+04	 2.065E+03	 5.820E+03	 1.767E+03	 2.012E+01
    2.5625	 8.000E+00	 0.000E+00	 9.191E+00	 1.824E-01	 3.070E+04	 2.096E+03	 5.893E+03	 1.769E+03	 2.013E+01
    2.5750	 8.000E+00	 0.000E+00	 9.194E+00	 1.825E-01	 3.086E+04	 2.126E+03	 5.845E+03	 1.771E+03	 2.015E+01
    2.5875	 8.000E+00	 0.000E+00	 9.196E+00	 1.827E-01	 3.086E+04	 2.153E+03	 5.906E+03	 1.774E+03	 2.017E+01
    2.6000	 8.000E+00	 0.000E+00	 9.199E+00	 1.829E-01	 3.103E+04	 2.178E+03	 5.840E+03	 1.776E+03	 2.019E+01
    2.6125	 8.000E+00	 0.000E+00	 9.201E+00	 1.830E-01	 3.107E+04	 2.199E+03	 5.906E+03	 1.780E+03	 2.021E+01
    2.6250	 8.000E+00	 0.000E+00	 9.203E+00	 1.832E-01	 3.124E+04	 2.215E+03	 5.847E+03	 1.783E+03	 2.024E+01
    2.6375	 8.000E+00	 0.000E+00	 9.204E+00	 1.834E-01	 3.128E+04	 2.226E+03	 5.916E+03	 1.787E+03	 2.026E+01
    2.6500	 8.000E+00	 0.000E+00	 9.205E+00	 1.836E-01	 3.146E+04	 2.231E+03	 5.853E+03	 1.790E+03	 2.029E+01
    2.6625	 8.000E+00	 0.000E+00	 9.206E+00	 1.838E-01	 3.149E+04	 2.230E+03	 5.922E+03	 1.794E+03	 2.032E+01
    2.6750	 8.000E+00	 0.000E+00	 9.206E+00	 1.840E-01	 3.166E+04	 2.222E+03	 5.863E+03	 1.797E+03	 2.035E+01
    2.6875	 8.000E+00	 0.000E+00	 9.207E+00	 1.841E-01	 3.167E+04	 2.208E+03	 5.934E+03	 1.801E+03	 2.037E+01
    2.7000	 8.000E+00	 0.000E+00	 9.207E+00	 1.843E-01	 3.182E+04	 2.188E+03	 5.872E+03	 1.804E+03	 2.039E+01
    2.7125	 8.000E+00	 0.000E+00	 9.207E+00	 1.845E-01	 3.182E+04	 2.164E+03	 5.949E+03	 1.806E+03	 2.041E+01
    2.7250	 8.000E+00	 0.000E+00	 9.207E+00	 1.847E-01	 3.194E+04	 2.135E+03	 5.880E+03	 1.809E+03	 2.043E+01
    2.7375	 8.000E+00	 0.000E+00	 9.208E+00	 1.849E-01	 3.190E+04	 2.103E+03	 5.968E+03	 1.811E+03	 2.045E+01
    2.7500	 8.000E+00	 0.000E+00	 9.208E+00	 1.851E-01	 3.200E+04	 2.069E+03	 5.897E+03	 1.812E+03	 2.046E+01
    2.7625	 8.000E+00	 0.000E+00	 9.209E+00	 1.853E-01	 3.193E+04	 2.033E+03	 5.983E+03	 1.813E+03	 2.046E+01
    2.7750	 8.000E+00	 0.000E+00	 9.209E+00	 1.855E-01	 3.200E+04	 1.998E+03	 5.916E+03	 1.813E+03	 2.047E+01
    2.7875	 8.000E+00	 0.000E+00	 9.210E+00	 1.857E-01	 3.190E+04	 1.963E+03	 6.004E+03	 1.813E+03	 2.047E+01
    2.8000	 8.000E+00	 0.000E+00	 9.210E+00	 1.859E-01	 3.195E+04	 1.931E+03	 5.934E+03	 1.813E+03	 2.046E+01
    2.8125	 8.000E+00	 0.000E+00	 9.210E+00	 1.861E-01	 3.184E+04	 1.900E+03	 6.022E+03	 1.812E+03	 2.045E+01
    2.8250	 8.000E+00	 0.000E+00	 9.210E+00	 1.863E-01	 3.188E+04	 1.872E+03	 5.953E+03	 1.810E+03	 2.044E+01
    2.8375	 8.000E+00	 0.000E+00	 9.210E+00	 1.865E-01	 3.175E+04	 1.847E+03	 6.046E+03	 1.809E+03	 2.043E+01
    2.8500	 8.000E+00	 0.000E+00	 9.209E+00	 1.868E-01	 3.179E+04	 1.825E+03	 5.968E+03	 1.807E+03	 2.042E+01
    2.8625	 8.000E+00	 0.000E+00	 9.208E+00	 1.870E-01	 3.169E+04	 1.807E+03	 6.060E+03	 1.804E+03	 2.040E+01
    2.8750	 8.000E+00	 0.000E+00	 9.207E+00	 1.872E-01	 3.172E+04	 1.791E+03	 5.987E+03	 1.802E+03	 2.038E+01
    2.8875	 8.000E+00	 0.000E+00	 9.205E+00	 1.874E-01	 3.163E+04	 1.779E+03	 6.073E+03	 1.799E+03	 2.036E+01
    2.9000	 8.000E+00	 0.000E+00	 9.203E+00	 1.876E-01	 3.169E+04	 1.769E+03	 5.996E+03	 1.797E+03	 2.034E+01
    2.9125	 8.000E+00	 0.000E+00	 9.200E+00	 1.878E-01	 3.161E+04	 1.763E+03	 6.084E+03	 1.794E+03	 2.032E+01
    2.9250	 8.000E+00	 0.000E+00	 9.198E+00	 1.881E-01	 3.169E+04	 1.759E+03	 6.003E+03	 1.791E+03	 2.030E+01
    2.9375	 8.000E+00	 0.000E+00	 9.195E+00	 1.883E-01	 3.164E+04	 1.757E+03	 6.086E+03	 1.788E+03	 2.027E+01
    2.9500	 8.000E+00	 0.000E+00	 9.193E+00	 1.886E-01	 3.173E+04	 1.758E+03	 6.005E+03	 1.785E+03	 2.025E+01
    2.9625	 8.000E+00	 0.000E+00	 9.190E+00	 1.888E-01	 3.169E+04	 1.762E+03	 6.089E+03	 1.782E+03	 2.023E+01
    2.9750	 8.000E+00	 0.000E+00	 9.188E+00	 1.891E-01	 3.181E+04	 1.769E+03	 6.003E+03	 1.780E+03	 2.021E+01
    2.9875	 8.000E+00	 0.000E+00	 9.186E+00	 1.893E-01	 3.179E+04	 1.779E+03	 6.079E+03	 1.777E+03	 2.019E+01
    3.0000	 8.000E+00	 0.000E+00	 9.185E+00	 1.896E-01	 3.190E+04	 1.791E+03	 5.999E+03	 1.775E+03	 2.017E+01
    3.0125	 8.000E+00	 0.000E+00	 9.183E+00	 1.899E-01	 3.189E+04	 1.807E+03	 6.071E+03	 1.772E+03	 2.016E+01
    3.0250	 8.000E+00	 0.000E+00	 9.183E+00	 1.901E-01	 3.201E+04	 1.825E+03	 5.987E+03	 1.770E+03	 2.014E+01
    3.0375	 8.000E+00	 0.000E+00	 9.182E+00	 1.904E-01	 3.199E+04	 1.846E+03	 6.061E+03	 1.769E+03	 2.013E+01
    3.0500	 8.000E+00	 0.000E+00	 9.182E+00	 1.907E-01	 3.210E+04	 1.870E+03	 5.973E+03	 1.768E+03	 2.012E+01
    3.0625	 8.000E+00	 0.000E+00	 9.182E+00	 1.910E-01	 3.208E+04	 1.896E+03	 6.044E+03	 1.767E+03	 2.011E+01
    3.0750	 8.000E+00	 0.000E+00	 9.183E+00	 1.914E-01	 3.218E+04	 1.923E+03	 5.961E+03	 1.766E+03	 2.011E+01
    3.0875	 8.000E+00	 0.000E+00	 9.183E+00	 1.917E-01	 3.215E+04	 1.951E+03	 6.032E+03	 1.766E+03	 2.011E+01
    3.1000	 8.000E+00	 0.000E+00	 9.184E+00	 1.920E-01	 3.223E+04	 1.980E+03	 5.948E+03	 1.766E+03	 2.011E+01
    3.1125	 8.000E+00	 0.000E+00	 9.185E+00	 1.924E-01	 3.220E+04	 2.008E+03	 6.016E+03	 1.767E+03	 2.011E+01
    3.1250	 8.000E+00	 0.000E+00	 9.185E+00	 1.927E-01	 3.227E+04	 2.035E+03	 5.935E+03	 1.768E+03	 2.012E+01
    3.1375	 8.000E+00	 0.000E+00	 9.186E+00	 1.931E-01	 3.224E+04	 2.060E+03	 6.002E+03	 1.769E+03	 2.013E+01
    3.1500	 8.000E+00	 0.000E+00	 9.187E+00	 1.934E-01	 3.230E+04	 2.083E+03	 5.924E+03	 1.770E+03	 2.014E+01
    3.1625	 8.000E+00	 0.000E+00	 9.188E+00	 1.938E-01	 3.227E+04	 2.103E+03	 5.996E+03	 1.772E+03	 2.016E+01
    3.1750	 8.000E+00	 0.000E+00	 9.188E+00	 1.942E-01	 3.234E+04	 2.119E+03	 5.909E+03	 1.775E+03	 2.017E+01
    3.1875	 8.000E+00	 0.000E+00	 9.189E+00	 1.946E-01	 3.232E+04	 2.132E+03	 5.985E+03	 1.777E+03	 2.019E+01
    3.2000	 8.000E+00	 0.000E+00	 9.190E+00	 1.950E-01	 3.239E+04	 2.142E+03	 5.907E+03	 1.779E+03	 2.021E+01
    3.2125	 8.000E+00	 0.000E+00	 9.192E+00	 1.954E-01	 3.239E+04	 2.147E+03	 5.976E+03	 1.782E+03	 2.023E+01
    3.2250	 8.000E+00	 0.000E+00	 9.193E+00	 1.958E-01	 3.249E+04	 2.149E+03	 5.900E+03	 1.784E+03	 2.025E+01
    3.2375	 8.000E+00	 0.000E+00	 9.194E+00	 1.962E-01	 3.251E+04	 2.148E+03	 5.970E+03	 1.787E+03	 2.027E+01
    3.2500	 8.000E+00	 0.000E+00	 9.195E+00	 1.966E-01	 3.262E+04	 2.143E+03	 5.897E+03	 1.790E+03	 2.029E+01
    3.2625	 8.000E+00	 0.000E+00	 9.197E+00	 1.971E-01	 3.266E+04	 2.135E+03	 5.967E+03	 1.792E+03	 2.030E+01
    3.2750	 8.000E+00	 0.000E+00	 9.198E+00	 1.975E-01	 3.280E+04	 2.125E+03	 5.893E+03	 1.794E+03	 2.032E+01
    3.2875	 8.000E+00	 0.000E+00	 9.200E+00	 1.979E-01	 3.287E+04	 2.112E+03	 5.961E+03	 1.796E+03	 2.034E+01